<?xml version="1.0" encoding="UTF-8"?>

<!-- generated on 2025-12-17T00:17:54.983733+08:00 by Eclipse SUMO sumo 1.25.0
<sumoConfiguration xmlns:xsi="http://www.w3.org/2001/XMLSchema-instance" xsi:noNamespaceSchemaLocation="http://sumo.dlr.de/xsd/sumoConfiguration.xsd">

    <input>
        <net-file value="toy.net.xml"/>
        <route-files value="toy_pt_routes.rou.xml,person.rou.xml"/>
        <additional-files value="toy_pt_stops.add.xml"/>
    </input>

    <output>
        <summary-output value="summary.xml"/>
        <tripinfo-output value="tripinfo.xml"/>
        <personinfo-output value="personinfo.xml"/>
        <vehroute-output value="vehroutes.xml"/>
    </output>

    <time>
        <begin value="0"/>
        <end value="3600"/>
        <step-length value="1"/>
    </time>

    <processing>
        <time-to-teleport value="-1"/>
    </processing>

    <routing>
        <routing-algorithm value="dijkstra"/>
    </routing>

</sumoConfiguration>
-->

<tripinfos xmlns:xsi="http://www.w3.org/2001/XMLSchema-instance" xsi:noNamespaceSchemaLocation="http://sumo.dlr.de/xsd/tripinfo_file.xsd">
    <tripinfo id="subway1_0" depart="0.00" departLane="A0B0_1" departPos="18.10" departSpeed="0.00" departDelay="0.00" arrival="190.00" arrivalLane="C0D0_1" arrivalPos="116.00" arrivalSpeed="13.20" duration="190.00" routeLength="339.90" waitingTime="0.00" waitingCount="0" stopTime="149.00" timeLoss="16.30" rerouteNo="0" devices="vehroute_subway1_0 tripinfo_subway1_0 person_subway1_0" vType="pt_subway" speedFactor="1.00" vaporized=""/>
    <tripinfo id="busB42_0" depart="180.00" departLane="C0D0_1" departPos="12.10" departSpeed="0.00" departDelay="0.00" arrival="428.00" arrivalLane="E0F0_1" arrivalPos="118.00" arrivalSpeed="9.00" duration="248.00" routeLength="345.90" waitingTime="0.00" waitingCount="0" stopTime="201.00" timeLoss="19.85" rerouteNo="0" devices="vehroute_busB42_0 tripinfo_busB42_0" vType="pt_bus" speedFactor="1.00" vaporized=""/>
</tripinfos>
